# LAMMPS data file written by OVITO Basic 3.7.2
3000 atoms
2000 bonds
1000 angles
2 atom types
1 bond types
1 angle types
-1.006 26.031 xlo xhi
-1.007 26.082 ylo yhi
-1.02 250.0 zlo zhi
 
Masses

1 15.9994  # O
2 1.00794  # H

Atoms  # full
 
1 1 1 -1.1794 2.65 6.682 42.397
2 1 2 0.5897 3.631 6.85 42.299
3 1 2 0.5897 2.155 7.547 42.33
4 2 1 -1.1794 17.374 21.301 40.56
5 2 2 0.5897 17.467 22.289 40.687
6 2 2 0.5897 16.414 21.073 40.404
7 3 1 -1.1794 0.987 6.069 3.675
8 3 2 0.5897 1.464 5.19 3.645
9 3 2 0.5897 0.0 5.913 3.686
10 4 1 -1.1794 19.652 12.94 2.615
11 4 2 0.5897 18.654 12.981 2.673
12 4 2 0.5897 19.943 11.989 2.519
13 5 1 -1.1794 23.634 7.008 40.835
14 5 2 0.5897 22.727 7.041 40.416
15 5 2 0.5897 24.003 6.082 40.76
16 6 1 -1.1794 2.067 3.637 8.183
17 6 2 0.5897 2.226 4.605 8.377
18 6 2 0.5897 2.924 3.209 7.898
19 7 1 -1.1794 3.637 9.579 25.894
20 7 2 0.5897 2.94 9.811 25.215
21 7 2 0.5897 3.256 9.683 26.812
22 8 1 -1.1794 23.751 23.723 5.838
23 8 2 0.5897 22.892 23.804 6.345
24 8 2 0.5897 23.911 22.765 5.604
25 9 1 -1.1794 2.192 11.547 38.564
26 9 2 0.5897 1.406 10.954 38.393
27 9 2 0.5897 3.016 10.99 38.659
28 10 1 -1.1794 23.464 4.409 23.799
29 10 2 0.5897 22.913 4.4 22.964
30 10 2 0.5897 24.427 4.28 23.565
31 11 1 -1.1794 22.157 7.749 10.898
32 11 2 0.5897 22.576 6.841 10.866
33 11 2 0.5897 22.873 8.444 10.959
34 12 1 -1.1794 7.525 12.151 14.667
35 12 2 0.5897 8.233 12.858 14.663
36 12 2 0.5897 6.685 12.522 15.064
37 13 1 -1.1794 1.597 4.916 35.55
38 13 2 0.5897 0.637 5.172 35.661
39 13 2 0.5897 1.859 4.278 36.274
40 14 1 -1.1794 15.653 11.974 22.679
41 14 2 0.5897 14.664 11.856 22.598
42 14 2 0.5897 15.89 12.165 23.631
43 15 1 -1.1794 6.248 15.157 3.677
44 15 2 0.5897 7.242 15.259 3.72
45 15 2 0.5897 5.835 16.025 3.406
46 16 1 -1.1794 24.626 8.24 16.484
47 16 2 0.5897 24.134 7.559 15.941
48 16 2 0.5897 24.228 8.289 17.399
49 17 1 -1.1794 1.119 1.445 39.862
50 17 2 0.5897 1.511 1.611 40.768
51 17 2 0.5897 0.82 0.494 39.797
52 18 1 -1.1794 13.594 10.256 24.804
53 18 2 0.5897 14.391 10.796 24.531
54 18 2 0.5897 13.867 9.582 25.489
55 19 1 -1.1794 2.859 18.117 20.809
56 19 2 0.5897 3.369 17.853 19.99
57 19 2 0.5897 1.999 17.609 20.844
58 20 1 -1.1794 10.515 4.493 1.576
59 20 2 0.5897 10.293 5.467 1.548
60 20 2 0.5897 11.507 4.377 1.609
61 21 1 -1.1794 22.365 2.748 20.758
62 21 2 0.5897 21.894 3.619 20.615
63 21 2 0.5897 21.889 2.026 20.256
64 22 1 -1.1794 6.554 12.802 29.709
65 22 2 0.5897 7.07 12.366 28.972
66 22 2 0.5897 5.641 13.042 29.38
67 23 1 -1.1794 7.318 20.628 22.271
68 23 2 0.5897 7.903 19.818 22.31
69 23 2 0.5897 7.835 21.395 21.892
70 24 1 -1.1794 16.646 0.364 26.677
71 24 2 0.5897 16.651 1.358 26.563
72 24 2 0.5897 15.758 0.001 26.397
73 25 1 -1.1794 3.749 24.513 36.606
74 25 2 0.5897 3.933 24.899 37.51
75 25 2 0.5897 2.986 25.0 36.183
76 26 1 -1.1794 19.016 21.158 44.055
77 26 2 0.5897 19.08 22.124 43.805
78 26 2 0.5897 19.207 20.593 43.254
79 27 1 -1.1794 10.239 18.792 28.558
80 27 2 0.5897 9.688 19.622 28.473
81 27 2 0.5897 10.01 18.162 27.817
82 28 1 -1.1794 5.193 13.355 20.772
83 28 2 0.5897 5.655 12.631 20.26
84 28 2 0.5897 4.245 13.428 20.466
85 29 1 -1.1794 0.753 14.314 37.268
86 29 2 0.5897 0.0 13.675 37.111
87 29 2 0.5897 0.405 15.251 37.246
88 30 1 -1.1794 10.971 9.94 23.539
89 30 2 0.5897 11.574 10.703 23.772
90 30 2 0.5897 10.167 9.957 24.133
91 31 1 -1.1794 2.347 13.285 2.114
92 31 2 0.5897 2.498 14.109 1.568
93 31 2 0.5897 1.514 13.391 2.655
94 32 1 -1.1794 3.863 10.116 19.8
95 32 2 0.5897 4.336 10.981 19.628
96 32 2 0.5897 2.876 10.259 19.74
97 33 1 -1.1794 18.853 5.177 20.649
98 33 2 0.5897 19.661 5.766 20.654
99 33 2 0.5897 19.139 4.219 20.63
100 34 1 -1.1794 6.205 14.309 35.572
101 34 2 0.5897 6.761 15.12 35.391
102 34 2 0.5897 5.418 14.563 36.133
103 35 1 -1.1794 20.399 18.436 28.353
104 35 2 0.5897 20.83 19.052 27.694
105 35 2 0.5897 21.034 18.249 29.101
106 36 1 -1.1794 18.786 15.587 5.959
107 36 2 0.5897 19.747 15.864 5.968
108 36 2 0.5897 18.204 16.4 5.956
109 37 1 -1.1794 22.707 8.857 43.491
110 37 2 0.5897 23.332 8.077 43.522
111 37 2 0.5897 21.764 8.528 43.455
112 38 1 -1.1794 16.954 16.203 27.453
113 38 2 0.5897 17.649 16.149 28.17
114 38 2 0.5897 17.183 16.946 26.823
115 39 1 -1.1794 4.193 10.796 32.355
116 39 2 0.5897 4.091 11.756 32.094
117 39 2 0.5897 3.324 10.454 32.71
118 40 1 -1.1794 3.627 12.275 3.887
119 40 2 0.5897 2.693 11.959 4.054
120 40 2 0.5897 4.044 11.719 3.168
121 41 1 -1.1794 20.605 8.265 6.223
122 41 2 0.5897 21.42 8.631 6.674
123 41 2 0.5897 20.731 7.29 6.047
124 42 1 -1.1794 5.975 12.127 27.052
125 42 2 0.5897 6.895 11.893 26.737
126 42 2 0.5897 5.914 13.114 27.198
127 43 1 -1.1794 22.511 14.679 5.163
128 43 2 0.5897 21.855 15.297 5.596
129 43 2 0.5897 22.112 13.766 5.089
130 44 1 -1.1794 6.285 22.903 22.3
131 44 2 0.5897 6.78 23.724 22.013
132 44 2 0.5897 5.303 23.088 22.299
133 45 1 -1.1794 4.211 16.507 22.436
134 45 2 0.5897 4.486 17.468 22.481
135 45 2 0.5897 3.218 16.44 22.529
136 46 1 -1.1794 15.767 23.198 4.085
137 46 2 0.5897 16.747 23.07 3.935
138 46 2 0.5897 15.338 22.313 4.265
139 47 1 -1.1794 2.644 2.983 24.8
140 47 2 0.5897 3.188 3.339 24.04
141 47 2 0.5897 2.389 2.035 24.614
142 48 1 -1.1794 2.698 24.212 46.868
143 48 2 0.5897 3.47 24.847 46.82
144 48 2 0.5897 2.958 23.339 46.456
145 49 1 -1.1794 5.247 3.503 42.143
146 49 2 0.5897 6.161 3.908 42.13
147 49 2 0.5897 5.323 2.507 42.155
148 50 1 -1.1794 12.612 6.044 40.589
149 50 2 0.5897 11.785 5.481 40.606
150 50 2 0.5897 12.358 7.006 40.503
151 51 1 -1.1794 24.057 20.81 1.08
152 51 2 0.5897 24.997 21.066 1.302
153 51 2 0.5897 23.459 21.603 1.192
154 52 1 -1.1794 11.801 2.815 36.353
155 52 2 0.5897 11.496 3.306 35.537
156 52 2 0.5897 11.226 3.069 37.13
157 53 1 -1.1794 24.868 10.187 9.684
158 53 2 0.5897 24.998 9.742 8.797
159 53 2 0.5897 24.761 9.491 10.393
160 54 1 -1.1794 7.864 0.988 3.319
161 54 2 0.5897 7.719 0.0 3.256
162 54 2 0.5897 6.994 1.462 3.187
163 55 1 -1.1794 10.053 12.818 22.055
164 55 2 0.5897 9.136 12.976 22.424
165 55 2 0.5897 10.668 13.541 22.369
166 56 1 -1.1794 1.204 5.598 0.997
167 56 2 0.5897 1.88 5.972 0.362
168 56 2 0.5897 1.507 4.702 1.318
169 57 1 -1.1794 8.946 21.469 8.614
170 57 2 0.5897 8.517 22.372 8.597
171 57 2 0.5897 9.894 21.544 8.307
172 58 1 -1.1794 15.217 1.622 31.164
173 58 2 0.5897 15.344 2.424 30.579
174 58 2 0.5897 16.098 1.339 31.539
175 59 1 -1.1794 19.776 22.009 33.123
176 59 2 0.5897 20.006 22.942 33.403
177 59 2 0.5897 19.241 22.037 32.279
178 60 1 -1.1794 14.894 17.522 31.641
179 60 2 0.5897 13.937 17.754 31.462
180 60 2 0.5897 15.468 18.323 31.474
181 61 1 -1.1794 21.605 6.792 20.744
182 61 2 0.5897 21.006 7.488 21.14
183 61 2 0.5897 21.701 6.954 19.762
184 62 1 -1.1794 1.205 24.892 33.827
185 62 2 0.5897 0.501 24.994 34.531
186 62 2 0.5897 2.047 24.553 34.245
187 63 1 -1.1794 13.616 3.59 1.473
188 63 2 0.5897 14.063 2.696 1.452
189 63 2 0.5897 14.287 4.293 1.704
190 64 1 -1.1794 3.648 25.0 23.347
191 64 2 0.5897 3.328 24.368 24.054
192 64 2 0.5897 3.654 24.535 22.463
193 65 1 -1.1794 6.793 1.366 44.352
194 65 2 0.5897 6.859 1.22 43.365
195 65 2 0.5897 7.233 2.231 44.592
196 66 1 -1.1794 19.042 9.596 14.242
197 66 2 0.5897 18.049 9.561 14.356
198 66 2 0.5897 19.329 10.545 14.117
199 67 1 -1.1794 4.522 0.0 31.593
200 67 2 0.5897 4.727 0.025 32.572
201 67 2 0.5897 4.239 0.909 31.288
202 68 1 -1.1794 10.146 19.674 25.43
203 68 2 0.5897 9.786 20.425 24.876
204 68 2 0.5897 9.547 18.879 25.345
205 69 1 -1.1794 0.585 15.792 28.226
206 69 2 0.5897 0.005 15.377 28.926
207 69 2 0.5897 0.047 15.953 27.399
208 70 1 -1.1794 11.169 1.877 15.32
209 70 2 0.5897 11.088 2.01 16.309
210 70 2 0.5897 11.581 2.688 14.907
211 71 1 -1.1794 2.871 10.179 15.084
212 71 2 0.5897 3.544 10.706 14.564
213 71 2 0.5897 1.95 10.444 14.803
214 72 1 -1.1794 12.137 8.664 13.649
215 72 2 0.5897 11.743 9.567 13.817
216 72 2 0.5897 13.133 8.739 13.598
217 73 1 -1.1794 9.307 22.866 14.012
218 73 2 0.5897 9.704 22.123 14.552
219 73 2 0.5897 9.871 23.686 14.107
220 74 1 -1.1794 0.638 14.221 41.929
221 74 2 0.5897 1.573 14.019 42.222
222 74 2 0.5897 0.0 13.622 42.411
223 75 1 -1.1794 18.58 5.157 5.426
224 75 2 0.5897 18.964 4.939 4.529
225 75 2 0.5897 18.805 6.101 5.664
226 76 1 -1.1794 13.389 20.255 5.144
227 76 2 0.5897 14.035 19.517 5.341
228 76 2 0.5897 13.783 21.129 5.428
229 77 1 -1.1794 8.826 17.363 21.773
230 77 2 0.5897 7.945 17.503 22.226
231 77 2 0.5897 9.454 16.902 22.399
232 78 1 -1.1794 7.626 23.222 30.904
233 78 2 0.5897 8.319 23.937 30.805
234 78 2 0.5897 8.058 22.325 30.818
235 79 1 -1.1794 11.675 11.565 43.673
236 79 2 0.5897 11.397 12.519 43.787
237 79 2 0.5897 10.888 11.02 43.385
238 80 1 -1.1794 21.52 19.508 45.022
239 80 2 0.5897 20.83 18.826 45.264
240 80 2 0.5897 21.141 20.143 44.35
241 81 1 -1.1794 5.476 23.19 5.874
242 81 2 0.5897 4.733 23.81 5.622
243 81 2 0.5897 5.499 22.421 5.235
244 82 1 -1.1794 8.009 6.901 33.866
245 82 2 0.5897 8.079 7.772 34.353
246 82 2 0.5897 7.047 6.655 33.757
247 83 1 -1.1794 9.713 19.909 37.533
248 83 2 0.5897 9.628 20.046 36.546
249 83 2 0.5897 8.81 19.967 37.957
250 84 1 -1.1794 13.114 2.335 7.217
251 84 2 0.5897 13.295 2.053 8.159
252 84 2 0.5897 13.976 2.394 6.715
253 85 1 -1.1794 1.115 7.033 21.263
254 85 2 0.5897 0.615 6.17 21.188
255 85 2 0.5897 0.466 7.792 21.296
256 86 1 -1.1794 18.33 9.388 41.764
257 86 2 0.5897 18.789 8.61 42.195
258 86 2 0.5897 17.362 9.384 42.015
259 87 1 -1.1794 18.268 15.107 32.578
260 87 2 0.5897 18.898 15.884 32.548
261 87 2 0.5897 18.788 14.261 32.684
262 88 1 -1.1794 5.688 0.107 35.662
263 88 2 0.5897 5.28 0.001 34.755
264 88 2 0.5897 4.973 0.317 36.327
265 89 1 -1.1794 17.644 10.663 11.93
266 89 2 0.5897 16.934 9.98 11.754
267 89 2 0.5897 18.514 10.203 12.102
268 90 1 -1.1794 3.337 22.796 14.374
269 90 2 0.5897 2.528 23.239 14.76
270 90 2 0.5897 3.247 22.742 13.38
271 91 1 -1.1794 5.544 15.385 17.091
272 91 2 0.5897 5.054 14.521 17.206
273 91 2 0.5897 6.292 15.26 16.44
274 92 1 -1.1794 8.085 3.606 20.482
275 92 2 0.5897 7.786 2.674 20.277
276 92 2 0.5897 7.332 4.114 20.9
277 93 1 -1.1794 9.034 0.823 23.764
278 93 2 0.5897 8.942 1.735 23.366
279 93 2 0.5897 8.261 0.644 24.372
280 94 1 -1.1794 12.18 16.558 9.067
281 94 2 0.5897 11.958 17.532 9.117
282 94 2 0.5897 13.14 16.446 8.815
283 95 1 -1.1794 19.762 20.371 29.521
284 95 2 0.5897 19.939 21.259 29.096
285 95 2 0.5897 20.513 20.14 30.139
286 96 1 -1.1794 23.315 24.398 25.631
287 96 2 0.5897 22.593 24.714 26.248
288 96 2 0.5897 24.086 25.032 25.668
289 97 1 -1.1794 2.604 2.455 0.342
290 97 2 0.5897 1.65 2.636 0.579
291 97 2 0.5897 2.692 1.52 0.0
292 98 1 -1.1794 18.938 12.465 38.865
293 98 2 0.5897 19.186 11.535 38.593
294 98 2 0.5897 18.249 12.824 38.237
295 99 1 -1.1794 13.348 1.032 11.878
296 99 2 0.5897 12.752 1.343 12.618
297 99 2 0.5897 13.482 1.775 11.223
298 100 1 -1.1794 7.781 4.779 0.476
299 100 2 0.5897 7.725 4.938 1.462
300 100 2 0.5897 7.181 5.421 0.0
301 101 1 -1.1794 5.529 6.966 17.921
302 101 2 0.5897 4.648 6.501 17.829
303 101 2 0.5897 6.255 6.287 18.029
304 102 1 -1.1794 10.256 0.234 26.085
305 102 2 0.5897 9.809 1.101 25.865
306 102 2 0.5897 11.223 0.284 25.837
307 103 1 -1.1794 3.856 5.346 26.081
308 103 2 0.5897 4.67 5.074 25.567
309 103 2 0.5897 3.902 4.968 27.005
310 104 1 -1.1794 4.766 22.132 43.282
311 104 2 0.5897 5.714 22.451 43.258
312 104 2 0.5897 4.15 22.919 43.298
313 105 1 -1.1794 2.91 2.619 16.431
314 105 2 0.5897 3.449 2.354 17.231
315 105 2 0.5897 2.695 3.594 16.481
316 106 1 -1.1794 1.961 22.133 29.002
317 106 2 0.5897 2.564 21.337 29.05
318 106 2 0.5897 1.1 21.928 29.466
319 107 1 -1.1794 9.321 11.389 39.37
320 107 2 0.5897 10.26 11.435 39.029
321 107 2 0.5897 9.331 11.263 40.362
322 108 1 -1.1794 12.504 0.981 40.595
323 108 2 0.5897 12.301 0.002 40.566
324 108 2 0.5897 13.469 1.128 40.38
325 109 1 -1.1794 7.14 21.785 10.205
326 109 2 0.5897 6.673 22.544 10.659
327 109 2 0.5897 7.601 21.22 10.888
328 110 1 -1.1794 15.572 15.78 20.733
329 110 2 0.5897 14.761 16.326 20.947
330 110 2 0.5897 16.309 16.382 20.429
331 111 1 -1.1794 17.778 8.169 19.751
332 111 2 0.5897 17.405 7.863 18.875
333 111 2 0.5897 18.305 7.429 20.166
334 112 1 -1.1794 18.364 21.959 6.595
335 112 2 0.5897 17.661 21.258 6.719
336 112 2 0.5897 19.238 21.521 6.388
337 113 1 -1.1794 19.682 3.611 10.871
338 113 2 0.5897 19.763 3.191 9.967
339 113 2 0.5897 18.718 3.764 11.083
340 114 1 -1.1794 16.339 2.98 34.081
341 114 2 0.5897 15.629 3.639 33.833
342 114 2 0.5897 17.173 3.469 34.337
343 115 1 -1.1794 12.16 12.959 37.922
344 115 2 0.5897 12.627 13.744 37.514
345 115 2 0.5897 11.21 13.201 38.118
346 116 1 -1.1794 12.656 21.924 35.876
347 116 2 0.5897 12.238 21.563 36.71
348 116 2 0.5897 12.403 22.884 35.765
349 117 1 -1.1794 15.177 18.976 11.216
350 117 2 0.5897 14.674 19.389 11.976
351 117 2 0.5897 15.883 18.367 11.575
352 118 1 -1.1794 23.488 21.568 22.042
353 118 2 0.5897 22.554 21.87 21.848
354 118 2 0.5897 24.1 21.893 21.322
355 119 1 -1.1794 16.491 12.243 16.994
356 119 2 0.5897 16.471 13.022 16.367
357 119 2 0.5897 15.681 12.266 17.58
358 120 1 -1.1794 11.932 0.0 7.171
359 120 2 0.5897 12.838 0.194 6.794
360 120 2 0.5897 11.261 0.618 6.763
361 121 1 -1.1794 5.015 1.534 10.203
362 121 2 0.5897 4.336 2.25 10.041
363 121 2 0.5897 4.694 0.674 9.81
364 122 1 -1.1794 18.483 0.799 42.548
365 122 2 0.5897 17.583 0.437 42.302
366 122 2 0.5897 18.57 1.734 42.206
367 123 1 -1.1794 8.167 13.895 26.586
368 123 2 0.5897 8.823 14.644 26.489
369 123 2 0.5897 7.624 13.817 25.75
370 124 1 -1.1794 13.909 7.424 38.347
371 124 2 0.5897 13.618 6.479 38.193
372 124 2 0.5897 13.124 7.972 38.635
373 125 1 -1.1794 9.028 21.382 4.916
374 125 2 0.5897 8.806 22.081 5.596
375 125 2 0.5897 8.185 21.041 4.501
376 126 1 -1.1794 3.244 15.956 37.764
377 126 2 0.5897 3.535 15.035 38.025
378 126 2 0.5897 4.017 16.451 37.37
379 127 1 -1.1794 21.71 1.052 32.521
380 127 2 0.5897 21.61 0.512 33.358
381 127 2 0.5897 22.681 1.17 32.315
382 128 1 -1.1794 11.34 6.219 38.387
383 128 2 0.5897 10.342 6.263 38.339
384 128 2 0.5897 11.63 5.264 38.424
385 129 1 -1.1794 15.926 2.187 17.665
386 129 2 0.5897 15.774 3.157 17.476
387 129 2 0.5897 15.248 1.641 17.173
388 130 1 -1.1794 16.878 18.474 39.891
389 130 2 0.5897 15.951 18.496 40.267
390 130 2 0.5897 16.832 18.423 38.894
391 131 1 -1.1794 4.139 11.625 16.885
392 131 2 0.5897 3.991 10.643 17.004
393 131 2 0.5897 5.045 11.87 17.228
394 132 1 -1.1794 2.042 5.183 29.196
395 132 2 0.5897 1.447 4.824 28.477
396 132 2 0.5897 2.811 5.669 28.782
397 133 1 -1.1794 4.231 18.759 7.253
398 133 2 0.5897 3.652 19.561 7.402
399 133 2 0.5897 3.784 17.95 7.634
400 134 1 -1.1794 11.659 22.777 15.327
401 134 2 0.5897 11.902 23.676 14.962
402 134 2 0.5897 12.492 22.28 15.571
403 135 1 -1.1794 4.614 12.569 11.287
404 135 2 0.5897 4.74 13.052 10.421
405 135 2 0.5897 5.068 13.074 12.02
406 136 1 -1.1794 14.249 4.9 22.141
407 136 2 0.5897 14.366 5.807 21.735
408 136 2 0.5897 14.112 4.991 23.127
409 137 1 -1.1794 24.752 11.996 34.439
410 137 2 0.5897 23.917 12.189 33.923
411 137 2 0.5897 24.996 11.033 34.329
412 138 1 -1.1794 11.25 16.934 24.271
413 138 2 0.5897 10.266 16.891 24.444
414 138 2 0.5897 11.494 17.852 23.958
415 139 1 -1.1794 4.309 15.259 19.141
416 139 2 0.5897 3.975 16.12 18.758
417 139 2 0.5897 5.267 15.361 19.406
418 140 1 -1.1794 8.423 4.297 13.747
419 140 2 0.5897 9.361 4.045 13.508
420 140 2 0.5897 8.306 5.284 13.645
421 141 1 -1.1794 16.88 14.756 15.076
422 141 2 0.5897 16.864 15.755 15.121
423 141 2 0.5897 17.544 14.463 14.389
424 142 1 -1.1794 11.405 4.791 16.352
425 142 2 0.5897 10.626 4.525 15.783
426 142 2 0.5897 11.107 5.456 17.036
427 143 1 -1.1794 6.748 23.99 7.472
428 143 2 0.5897 6.316 24.891 7.432
429 143 2 0.5897 7.742 24.096 7.487
430 144 1 -1.1794 0.004 6.886 39.629
431 144 2 0.5897 0.001 5.889 39.54
432 144 2 0.5897 0.745 7.164 40.239
433 145 1 -1.1794 0.689 14.806 24.718
434 145 2 0.5897 0.241 15.526 25.248
435 145 2 0.5897 0.0 14.281 24.22
436 146 1 -1.1794 17.255 8.369 3.255
437 146 2 0.5897 16.887 7.934 4.077
438 146 2 0.5897 18.238 8.2 3.199
439 147 1 -1.1794 20.012 13.655 20.516
440 147 2 0.5897 19.195 14.217 20.64
441 147 2 0.5897 20.755 14.22 20.159
442 148 1 -1.1794 6.721 2.785 12.54
443 148 2 0.5897 7.61 2.455 12.859
444 148 2 0.5897 6.804 3.738 12.251
445 149 1 -1.1794 11.673 20.234 15.92
446 149 2 0.5897 11.536 19.287 15.63
447 149 2 0.5897 10.969 20.485 16.584
448 150 1 -1.1794 10.299 19.698 34.472
449 150 2 0.5897 9.366 19.981 34.247
450 150 2 0.5897 10.832 20.496 34.75
451 151 1 -1.1794 4.947 20.317 1.305
452 151 2 0.5897 5.101 19.984 0.374
453 151 2 0.5897 3.969 20.463 1.449
454 152 1 -1.1794 2.161 23.897 38.344
455 152 2 0.5897 1.875 23.035 38.764
456 152 2 0.5897 1.543 24.124 37.592
457 153 1 -1.1794 9.263 8.951 36.004
458 153 2 0.5897 10.247 9.1 35.91
459 153 2 0.5897 9.094 8.008 36.29
460 154 1 -1.1794 13.665 22.075 10.038
461 154 2 0.5897 13.153 22.496 9.289
462 154 2 0.5897 13.41 21.112 10.118
463 155 1 -1.1794 10.121 10.959 9.848
464 155 2 0.5897 10.635 11.417 10.573
465 155 2 0.5897 9.145 10.988 10.061
466 156 1 -1.1794 16.429 19.747 29.109
467 156 2 0.5897 15.541 20.205 29.053
468 156 2 0.5897 16.487 19.045 28.399
469 157 1 -1.1794 0.63 21.707 42.893
470 157 2 0.5897 0.001 20.988 43.19
471 157 2 0.5897 0.919 21.53 41.953
472 158 1 -1.1794 5.812 2.48 32.436
473 158 2 0.5897 6.258 1.588 32.367
474 158 2 0.5897 6.264 3.026 33.141
475 159 1 -1.1794 3.105 2.804 3.904
476 159 2 0.5897 2.121 2.623 3.914
477 159 2 0.5897 3.602 1.939 3.841
478 160 1 -1.1794 9.237 9.454 41.92
479 160 2 0.5897 10.173 9.557 41.584
480 160 2 0.5897 9.057 8.49 42.116
481 161 1 -1.1794 1.662 23.541 19.346
482 161 2 0.5897 2.504 23.775 18.86
483 161 2 0.5897 0.946 24.196 19.107
484 162 1 -1.1794 8.308 25.0 35.875
485 162 2 0.5897 7.908 24.086 35.809
486 162 2 0.5897 9.302 24.926 35.938
487 163 1 -1.1794 18.0 3.567 15.473
488 163 2 0.5897 18.316 4.451 15.129
489 163 2 0.5897 18.657 2.857 15.221
490 164 1 -1.1794 21.966 19.999 0.695
491 164 2 0.5897 21.185 20.037 0.07
492 164 2 0.5897 21.662 19.675 1.59
493 165 1 -1.1794 12.832 0.885 44.99
494 165 2 0.5897 13.817 0.747 44.889
495 165 2 0.5897 12.366 0.001 44.956
496 166 1 -1.1794 16.341 6.788 6.102
497 166 2 0.5897 16.669 5.863 6.296
498 166 2 0.5897 17.093 7.438 6.211
499 167 1 -1.1794 1.694 23.57 44.35
500 167 2 0.5897 2.137 22.695 44.154
501 167 2 0.5897 2.391 24.268 44.509
502 168 1 -1.1794 19.315 14.956 1.113
503 168 2 0.5897 19.679 14.809 0.193
504 168 2 0.5897 18.783 15.802 1.131
505 169 1 -1.1794 15.099 22.008 31.455
506 169 2 0.5897 15.735 21.473 32.01
507 169 2 0.5897 14.755 21.444 30.705
508 170 1 -1.1794 24.47 17.364 8.948
509 170 2 0.5897 24.737 16.704 9.651
510 170 2 0.5897 23.722 17.931 9.29
511 171 1 -1.1794 3.871 22.611 33.892
512 171 2 0.5897 4.009 23.528 34.268
513 171 2 0.5897 2.892 22.42 33.83
514 172 1 -1.1794 7.24 5.114 26.914
515 172 2 0.5897 6.602 4.346 26.98
516 172 2 0.5897 8.179 4.772 26.947
517 173 1 -1.1794 19.703 7.736 40.388
518 173 2 0.5897 18.804 8.028 40.06
519 173 2 0.5897 19.689 6.753 40.568
520 174 1 -1.1794 9.577 13.283 10.074
521 174 2 0.5897 8.645 13.532 9.808
522 174 2 0.5897 10.175 13.324 9.274
523 175 1 -1.1794 8.014 7.018 28.035
524 175 2 0.5897 7.383 7.766 28.242
525 175 2 0.5897 8.641 7.302 27.311
526 176 1 -1.1794 3.392 2.163 33.745
527 176 2 0.5897 4.3 1.782 33.917
528 176 2 0.5897 2.868 1.533 33.173
529 177 1 -1.1794 5.196 19.86 43.643
530 177 2 0.5897 5.096 19.01 44.16
531 177 2 0.5897 5.933 20.407 44.04
532 178 1 -1.1794 16.367 16.072 3.631
533 178 2 0.5897 16.3 16.406 2.69
534 178 2 0.5897 16.972 16.671 4.155
535 179 1 -1.1794 10.037 3.911 9.865
536 179 2 0.5897 10.799 4.366 10.328
537 179 2 0.5897 9.503 3.393 10.532
538 180 1 -1.1794 20.87 15.327 3.59
539 180 2 0.5897 19.98 15.03 3.244
540 180 2 0.5897 21.592 14.781 3.166
541 181 1 -1.1794 23.126 5.053 8.948
542 181 2 0.5897 22.685 5.408 8.124
543 181 2 0.5897 22.978 4.067 9.007
544 182 1 -1.1794 15.034 16.753 29.54
545 182 2 0.5897 14.116 16.355 29.566
546 182 2 0.5897 14.972 17.717 29.286
547 183 1 -1.1794 16.44 14.009 35.86
548 183 2 0.5897 15.639 14.588 35.707
549 183 2 0.5897 17.186 14.562 36.229
550 184 1 -1.1794 17.892 7.388 15.12
551 184 2 0.5897 17.479 6.483 15.023
552 184 2 0.5897 18.765 7.411 14.634
553 185 1 -1.1794 3.993 20.121 11.865
554 185 2 0.5897 3.738 19.494 12.601
555 185 2 0.5897 3.27 20.8 11.739
556 186 1 -1.1794 5.47 6.464 21.566
557 186 2 0.5897 5.389 5.974 20.699
558 186 2 0.5897 4.587 6.868 21.805
559 187 1 -1.1794 7.732 13.72 7.673
560 187 2 0.5897 8.704 13.506 7.576
561 187 2 0.5897 7.208 12.871 7.737
562 188 1 -1.1794 0.0 18.312 5.045
563 188 2 0.5897 0.076 17.57 4.38
564 188 2 0.5897 0.665 19.026 4.826
565 189 1 -1.1794 17.266 8.84 31.566
566 189 2 0.5897 16.641 9.24 32.237
567 189 2 0.5897 18.101 9.386 31.519
568 190 1 -1.1794 18.658 16.048 10.457
569 190 2 0.5897 19.485 15.486 10.437
570 190 2 0.5897 18.911 17.014 10.482
571 191 1 -1.1794 15.663 2.28 43.037
572 191 2 0.5897 16.651 2.404 43.129
573 191 2 0.5897 15.427 2.185 42.071
574 192 1 -1.1794 4.408 24.404 20.316
575 192 2 0.5897 4.201 25.0 19.54
576 192 2 0.5897 5.398 24.299 20.401
577 193 1 -1.1794 16.108 24.372 27.834
578 193 2 0.5897 16.96 24.895 27.857
579 193 2 0.5897 15.33 24.999 27.863
580 194 1 -1.1794 10.042 23.01 1.738
581 194 2 0.5897 10.603 22.351 2.239
582 194 2 0.5897 10.326 23.938 1.975
583 195 1 -1.1794 0.993 2.771 21.079
584 195 2 0.5897 0.473 3.622 20.996
585 195 2 0.5897 0.37 1.992 21.019
586 196 1 -1.1794 10.823 5.079 3.725
587 196 2 0.5897 11.586 4.945 4.357
588 196 2 0.5897 9.985 5.249 4.243
589 197 1 -1.1794 14.29 21.773 41.957
590 197 2 0.5897 14.361 22.183 41.048
591 197 2 0.5897 14.894 20.979 42.013
592 198 1 -1.1794 12.885 17.094 6.729
593 198 2 0.5897 13.333 16.896 5.857
594 198 2 0.5897 12.022 16.593 6.782
595 199 1 -1.1794 10.348 20.27 2.892
596 199 2 0.5897 11.262 19.985 3.179
597 199 2 0.5897 9.687 19.558 3.127
598 200 1 -1.1794 3.023 2.157 20.32
599 200 2 0.5897 3.489 3.036 20.214
600 200 2 0.5897 3.424 1.489 19.695
601 201 1 -1.1794 18.331 5.907 11.399
602 201 2 0.5897 18.722 6.095 10.498
603 201 2 0.5897 17.407 5.54 11.291
604 202 1 -1.1794 6.933 23.384 41.192
605 202 2 0.5897 5.982 23.68 41.094
606 202 2 0.5897 7.031 22.454 40.839
607 203 1 -1.1794 16.195 3.161 36.477
608 203 2 0.5897 17.189 3.044 36.497
609 203 2 0.5897 15.753 2.282 36.649
610 204 1 -1.1794 14.464 21.883 -0.02
611 204 2 0.5897 15.433 21.637 0.014
612 204 2 0.5897 14.365 22.868 0.117
613 205 1 -1.1794 0.734 24.434 21.682
614 205 2 0.5897 1.542 25.0 21.519
615 205 2 0.5897 0.0 25.0 22.056
616 206 1 -1.1794 20.408 13.828 34.175
617 206 2 0.5897 21.272 14.245 33.894
618 206 2 0.5897 20.303 12.943 33.723
619 207 1 -1.1794 7.135 17.62 15.121
620 207 2 0.5897 7.588 16.76 14.884
621 207 2 0.5897 6.178 17.582 14.835
622 208 1 -1.1794 13.0 24.999 0.968
623 208 2 0.5897 12.342 24.272 1.163
624 208 2 0.5897 13.407 24.848 0.068
625 209 1 -1.1794 21.971 12.033 12.543
626 209 2 0.5897 21.284 11.714 13.196
627 209 2 0.5897 22.755 12.405 13.038
628 210 1 -1.1794 16.33 4.771 3.441
629 210 2 0.5897 16.775 5.631 3.692
630 210 2 0.5897 16.998 4.028 3.476
631 211 1 -1.1794 19.057 2.187 19.586
632 211 2 0.5897 18.51 1.358 19.71
633 211 2 0.5897 19.952 1.943 19.216
634 212 1 -1.1794 13.085 21.408 28.187
635 212 2 0.5897 13.633 22.236 28.064
636 212 2 0.5897 12.144 21.584 27.901
637 213 1 -1.1794 9.928 13.865 0.874
638 213 2 0.5897 10.875 14.125 0.684
639 213 2 0.5897 9.31 14.558 0.502
640 214 1 -1.1794 16.558 4.951 45.21
641 214 2 0.5897 17.469 4.611 45.443
642 214 2 0.5897 15.946 4.178 45.043
643 215 1 -1.1794 7.893 23.223 43.857
644 215 2 0.5897 8.443 24.055 43.79
645 215 2 0.5897 7.554 23.121 44.792
646 216 1 -1.1794 0.995 10.323 28.696
647 216 2 0.5897 0.001 10.257 28.601
648 216 2 0.5897 1.256 11.281 28.807
649 217 1 -1.1794 0.315 6.964 26.899
650 217 2 0.5897 1.194 6.554 27.142
651 217 2 0.5897 0.376 7.958 26.981
652 218 1 -1.1794 20.546 3.382 34.455
653 218 2 0.5897 19.703 3.566 34.96
654 218 2 0.5897 20.857 2.453 34.652
655 219 1 -1.1794 12.579 4.101 8.523
656 219 2 0.5897 12.186 5.021 8.531
657 219 2 0.5897 12.765 3.81 9.461
658 220 1 -1.1794 16.577 21.406 15.328
659 220 2 0.5897 15.604 21.176 15.355
660 220 2 0.5897 16.688 22.398 15.375
661 221 1 -1.1794 20.445 11.135 40.702
662 221 2 0.5897 19.86 11.94 40.792
663 221 2 0.5897 19.902 10.362 40.374
664 222 1 -1.1794 16.272 6.126 34.49
665 222 2 0.5897 16.409 5.372 35.133
666 222 2 0.5897 15.627 5.846 33.779
667 223 1 -1.1794 16.384 9.9 19.788
668 223 2 0.5897 17.002 10.267 20.483
669 223 2 0.5897 16.766 10.067 18.88
670 224 1 -1.1794 13.216 19.527 7.52
671 224 2 0.5897 13.128 20.511 7.674
672 224 2 0.5897 12.32 19.093 7.611
673 225 1 -1.1794 9.996 12.333 26.749
674 225 2 0.5897 9.11 11.909 26.562
675 225 2 0.5897 10.722 11.657 26.632
676 226 1 -1.1794 4.484 3.124 45.289
677 226 2 0.5897 4.814 2.453 44.625
678 226 2 0.5897 4.58 2.754 46.213
679 227 1 -1.1794 0.989 11.811 23.875
680 227 2 0.5897 0.652 12.238 24.714
681 227 2 0.5897 1.255 10.866 24.066
682 228 1 -1.1794 12.253 4.46 12.375
683 228 2 0.5897 12.511 3.523 12.141
684 228 2 0.5897 11.264 4.511 12.506
685 229 1 -1.1794 7.774 16.173 0.781
686 229 2 0.5897 8.303 16.728 0.139
687 229 2 0.5897 7.203 15.529 0.272
688 230 1 -1.1794 7.555 21.644 19.037
689 230 2 0.5897 7.546 22.554 19.453
690 230 2 0.5897 7.478 21.73 18.045
691 231 1 -1.1794 11.875 10.505 36.431
692 231 2 0.5897 12.548 9.861 36.796
693 231 2 0.5897 11.361 10.913 37.184
694 232 1 -1.1794 25.031 23.12 25.165
695 232 2 0.5897 24.846 23.524 24.268
696 232 2 0.5897 24.695 22.179 25.182
697 233 1 -1.1794 19.727 11.866 0.119
698 233 2 0.5897 20.267 12.658 0.404
699 233 2 0.5897 20.328 11.077 0.0
700 234 1 -1.1794 14.339 5.348 25.313
701 234 2 0.5897 15.135 5.912 25.535
702 234 2 0.5897 14.627 4.399 25.185
703 235 1 -1.1794 12.82 16.521 16.765
704 235 2 0.5897 12.934 15.529 16.814
705 235 2 0.5897 13.716 16.956 16.677
706 236 1 -1.1794 0.118 18.221 16.11
707 236 2 0.5897 0.0 17.24 16.264
708 236 2 0.5897 1.01 18.388 15.689
709 237 1 -1.1794 24.105 4.678 21.137
710 237 2 0.5897 25.0 4.839 20.721
711 237 2 0.5897 23.411 5.211 20.654
712 238 1 -1.1794 24.314 19.057 16.905
713 238 2 0.5897 24.826 18.816 17.73
714 238 2 0.5897 23.335 19.064 17.109
715 239 1 -1.1794 20.709 8.096 13.329
716 239 2 0.5897 21.675 7.861 13.217
717 239 2 0.5897 20.435 8.732 12.609
718 240 1 -1.1794 10.79 1.317 43.557
719 240 2 0.5897 10.442 1.36 44.494
720 240 2 0.5897 10.052 1.528 42.917
721 241 1 -1.1794 16.681 11.853 35.495
722 241 2 0.5897 16.134 11.261 34.903
723 241 2 0.5897 16.27 11.885 36.406
724 242 1 -1.1794 14.796 16.404 41.213
725 242 2 0.5897 14.832 17.095 41.936
726 242 2 0.5897 14.512 16.833 40.356
727 243 1 -1.1794 20.629 9.726 38.058
728 243 2 0.5897 20.873 9.325 37.175
729 243 2 0.5897 21.46 9.922 38.576
730 244 1 -1.1794 2.952 18.729 40.285
731 244 2 0.5897 2.606 19.543 39.817
732 244 2 0.5897 3.859 18.919 40.658
733 245 1 -1.1794 16.551 13.895 33.247
734 245 2 0.5897 17.077 13.052 33.363
735 245 2 0.5897 15.799 13.734 32.608
736 246 1 -1.1794 4.137 23.638 28.246
737 246 2 0.5897 4.527 23.78 29.156
738 246 2 0.5897 4.277 22.689 27.967
739 247 1 -1.1794 5.749 15.311 27.266
740 247 2 0.5897 5.025 15.414 26.584
741 247 2 0.5897 6.638 15.459 26.833
742 248 1 -1.1794 5.226 5.956 44.447
743 248 2 0.5897 5.879 6.244 43.746
744 248 2 0.5897 5.615 5.203 44.976
745 249 1 -1.1794 8.356 8.084 46.417
746 249 2 0.5897 8.534 7.272 46.973
747 249 2 0.5897 8.013 8.819 47.0
748 250 1 -1.1794 8.935 20.056 19.818
749 250 2 0.5897 9.352 20.377 18.967
750 250 2 0.5897 8.356 19.264 19.628
751 251 1 -1.1794 11.443 14.532 3.459
752 251 2 0.5897 11.762 15.48 3.472
753 251 2 0.5897 10.446 14.516 3.386
754 252 1 -1.1794 2.657 23.119 5.404
755 252 2 0.5897 1.769 23.306 4.983
756 252 2 0.5897 3.169 22.479 4.832
757 253 1 -1.1794 13.62 2.751 33.681
758 253 2 0.5897 13.452 3.722 33.511
759 253 2 0.5897 13.097 2.203 33.028
760 254 1 -1.1794 22.256 1.04 23.849
761 254 2 0.5897 22.605 0.103 23.865
762 254 2 0.5897 22.627 1.548 24.625
763 255 1 -1.1794 0.821 12.058 40.207
764 255 2 0.5897 1.511 11.541 40.714
765 255 2 0.5897 0.0 12.159 40.767
766 256 1 -1.1794 9.528 7.614 44.361
767 256 2 0.5897 10.399 7.552 44.849
768 256 2 0.5897 8.921 6.881 44.668
769 257 1 -1.1794 22.801 7.92 25.231
770 257 2 0.5897 23.383 7.338 25.8
771 257 2 0.5897 22.854 7.616 24.28
772 258 1 -1.1794 4.949 1.227 6.0
773 258 2 0.5897 4.94 2.227 6.0
774 258 2 0.5897 5.894 0.902 6.0
775 259 1 -1.1794 12.507 20.347 43.116
776 259 2 0.5897 12.476 20.454 42.122
777 259 2 0.5897 13.424 20.061 43.392
778 260 1 -1.1794 20.903 9.747 3.392
779 260 2 0.5897 19.913 9.887 3.386
780 260 2 0.5897 21.364 10.623 3.525
781 261 1 -1.1794 10.366 17.714 1.929
782 261 2 0.5897 9.416 17.464 2.118
783 261 2 0.5897 10.946 16.904 2.005
784 262 1 -1.1794 2.536 6.746 5.082
785 262 2 0.5897 2.898 5.879 5.425
786 262 2 0.5897 2.463 7.399 5.835
787 263 1 -1.1794 0.464 1.56 31.944
788 263 2 0.5897 0.001 2.137 32.618
789 263 2 0.5897 0.829 0.747 32.397
790 264 1 -1.1794 8.083 8.539 3.793
791 264 2 0.5897 8.11 7.656 4.262
792 264 2 0.5897 8.661 9.194 4.28
793 265 1 -1.1794 16.856 18.934 14.215
794 265 2 0.5897 15.906 19.098 14.484
795 265 2 0.5897 17.067 17.962 14.312
796 266 1 -1.1794 16.67 6.758 41.944
797 266 2 0.5897 16.501 7.459 42.638
798 266 2 0.5897 17.546 6.935 41.497
799 267 1 -1.1794 0.823 5.02 31.02
800 267 2 0.5897 0.0 5.404 31.439
801 267 2 0.5897 0.666 4.058 30.797
802 268 1 -1.1794 7.583 24.958 39.303
803 268 2 0.5897 8.155 24.45 38.658
804 268 2 0.5897 8.039 25.0 40.192
805 269 1 -1.1794 10.486 24.53 9.134
806 269 2 0.5897 9.515 24.59 8.904
807 269 2 0.5897 10.741 23.572 9.262
808 270 1 -1.1794 12.358 10.152 11.095
809 270 2 0.5897 12.859 9.29 11.178
810 270 2 0.5897 12.679 10.647 10.288
811 271 1 -1.1794 5.359 6.799 37.761
812 271 2 0.5897 5.449 7.647 37.239
813 271 2 0.5897 4.814 6.968 38.581
814 272 1 -1.1794 10.454 2.7 27.758
815 272 2 0.5897 9.533 2.684 27.367
816 272 2 0.5897 10.771 1.764 27.903
817 273 1 -1.1794 2.425 5.303 11.167
818 273 2 0.5897 2.211 4.457 10.678
819 273 2 0.5897 1.927 5.324 12.033